# vtk DataFile Version 5.0
vtk output
ASCII
DATASET POLYDATA
FIELD FieldData 1
CasePath 1 79 char
47 104 111 109 101 47 109 97 117 
114 111 47 71 97 114 114 97 104 
97 109 66 111 120 47 99 97 115 
101 115 47 99 97 115 111 45 97 
56 52 52 49 53 50 47 99 102 
100 47 112 108 97 110 110 105 110 
103 47 48 49 46 48 49 45 49 
46 53 76 109 105 110 45 48 46 
48 55 56 45 50 47 0 
METADATA
INFORMATION 0

POINTS 1938 float
-0.00521095 0.00332921 0.0423679 -0.00531518 0.00356477 0.0413425 -0.00542799 0.00376567 0.0403876 
-0.00558069 0.00395449 0.0393323 -0.00574022 0.0040767 0.0384829 -0.00597626 0.00417097 0.0375 
-0.00626809 0.00423717 0.0365394 -0.00659873 0.00426509 0.0355543 -0.0069446 0.00428983 0.0346048 
-0.00722716 0.00431828 0.0337879 -0.00752131 0.00438352 0.0328643 -0.00777839 0.00449565 0.0320418 
-0.00806674 0.0046957 0.0310839 -0.00833864 0.00496172 0.0301726 -0.0085765 0.00529873 0.029341 
-0.00887257 0.00579854 0.028433 -0.009195 0.00636635 0.0276386 -0.00950383 0.00691845 0.0270348 
-0.00988602 0.00755402 0.0264612 -0.0103369 0.00827221 0.0259404 -0.010857 0.00903971 0.0255044 
-0.0113083 0.00966626 0.0251786 -0.0118538 0.0103799 0.0248669 -0.0124898 0.011162 0.0246244 
-0.0130364 0.0117885 0.024465 -0.0135609 0.0123512 0.0243534 -0.0142913 0.0130668 0.0242406 
-0.0150795 0.0137697 0.0241623 -0.015793 0.0143561 0.0240895 -0.0166346 0.0149955 0.024042 
-0.0174826 0.015592 0.0240034 -0.0181364 0.0160214 0.0239705 -0.0189376 0.0165056 0.0239221 
-0.0198803 0.0170136 0.0238399 -0.0207272 0.0174244 0.0237429 -0.0215929 0.0178072 0.0236114 
-0.0224221 0.0181387 0.0234502 -0.0233538 0.0184672 0.023237 -0.0241496 0.0187257 0.0230281 
-0.0248723 0.0189541 0.0228304 -0.0110623 -0.00476009 0.0530109 -0.0112653 -0.00449796 0.0520277 
-0.0114259 -0.00427722 0.0511602 -0.0115718 -0.00406309 0.0502746 -0.0116993 -0.00385924 0.0494069 
-0.0118108 -0.00366415 0.0485363 -0.0119175 -0.00345763 0.0476018 -0.0120276 -0.00321216 0.0465102 
-0.0121104 -0.00299119 0.045536 -0.0121757 -0.00276992 0.0445583 -0.0122215 -0.00257298 0.0437146 
-0.0122682 -0.00232151 0.0426833 -0.0122952 -0.00210167 0.0418251 -0.0123189 -0.00185104 0.0408972 
-0.0123348 -0.00159506 0.0399915 -0.0123513 -0.00134482 0.0391434 -0.0123755 -0.00105846 0.0382282 
-0.0123994 -0.000802189 0.0374613 -0.0124341 -0.000510863 0.0366515 -0.012472 -0.000251129 0.0359841 
-0.0125302 6.39283e-05 0.0352301 -0.0126147 0.000432169 0.0344248 -0.0126847 0.000702293 0.0338989 
-0.0127497 0.000924758 0.0334901 -0.0128209 0.00113727 0.0331142 -0.0129233 0.00139902 0.0326633 
-0.0130614 0.00169527 0.0321578 -0.0132317 0.00200004 0.0316378 -0.0134558 0.00233303 0.0310627 
-0.0136945 0.0026347 0.0305366 -0.013957 0.0029287 0.0300209 -0.0141969 0.00317535 0.0295905 
-0.0144615 0.0034325 0.0291448 -0.0147215 0.00367752 0.0287304 -0.0150028 0.00393916 0.0282987 
-0.0152488 0.00416406 0.0279402 -0.0155018 0.00439168 0.0275884 -0.0157521 0.00461283 0.0272594 
-0.0160313 0.00485501 0.0269097 -0.0163225 0.0051029 0.0265666 -0.0167023 0.00541641 0.0261509 
-0.0170953 0.00572655 0.025745 -0.0174344 0.00598125 0.0254063 -0.0178277 0.0062634 0.0250147 
-0.0182611 0.00656166 0.0245774 -0.0187051 0.00686051 0.0241096 -0.0193092 0.00725616 0.0234534 
-0.0198758 0.00761088 0.0228504 -0.020407 0.00794032 0.0222779 -0.0210486 0.00834163 0.0215826 
-0.0216517 0.00872268 0.0209312 -0.0222804 0.00912079 0.0202723 -0.0229041 0.00951792 0.0196362 
-0.0234235 0.00985269 0.0191236 -0.024082 0.0102762 0.0184973 -0.0247642 0.0107045 0.017886 
-0.0252878 0.011026 0.0174378 -0.0258865 0.0113991 0.0169268 -0.026621 0.0118556 0.0163112 
-0.00854687 0.00112064 0.0533699 -0.00870825 0.00141174 0.0524452 -0.00884887 0.00170172 0.05153 
-0.00895636 0.00197219 0.0506813 -0.00903909 0.00223552 0.0498593 -0.00911101 0.00251506 0.0489984 
-0.00917075 0.00279528 0.0481342 -0.00920553 0.00308335 0.0472484 -0.00922845 0.00338681 0.0463168 
-0.00924131 0.00365911 0.0454772 -0.00924928 0.00391455 0.0446843 -0.00926087 0.00420851 0.0437645 
-0.0092832 0.00453984 0.0427115 -0.00931779 0.00480827 0.0418333 -0.00938585 0.00508192 0.0409067 
-0.00949537 0.0053337 0.0400145 -0.00964085 0.00558069 0.039118 -0.00982669 0.00580507 0.0382652 
-0.0101043 0.00604712 0.0373009 -0.0104371 0.00627359 0.0363787 -0.0107912 0.00647425 0.0355466 
-0.011158 0.00666675 0.034767 -0.0115679 0.00685781 0.0339871 -0.012052 0.00705859 0.0331421 
-0.0126018 0.00727456 0.0322172 -0.0130835 0.00744407 0.0314435 -0.0135545 0.00760322 0.0307074 
-0.0141291 0.00780721 0.0298077 -0.0146967 0.00802225 0.0289154 -0.0151664 0.00822679 0.0281862 
-0.0156877 0.00848096 0.0273851 -0.016203 0.00876627 0.0265994 -0.0167157 0.00908034 0.0258326 
-0.0172526 0.00943678 0.0250458 -0.017812 0.00984043 0.0242445 -0.0183369 0.0102423 0.0235178 
-0.0189394 0.0107418 0.0227082 -0.0194712 0.0112129 0.0220182 -0.0200174 0.0117108 0.0213439 
-0.0205671 0.0122336 0.0206871 -0.0210359 0.0126935 0.020155 -0.02156 0.0132195 0.0195959 
-0.0220508 0.0137147 0.0191023 -0.0226193 0.0142926 0.0185619 -0.023195 0.014892 0.0180395 
-0.0237716 0.0154958 0.0175229 -0.0244784 0.0162356 0.0168961 -0.00547218 -0.00381384 0.0543341 
-0.00568086 -0.00358057 0.0535775 -0.00594398 -0.00327072 0.0525748 -0.00618812 -0.00296601 0.0515935 
-0.00641815 -0.00266036 0.0506108 -0.00663156 -0.00235854 0.0496405 -0.00682846 -0.00206092 0.0486834 
-0.00697143 -0.0018307 0.0479438 -0.00714197 -0.00154199 0.0470138 -0.00727735 -0.0012989 0.0462288 
-0.00741238 -0.0010436 0.0453999 -0.00753691 -0.000799272 0.0446007 -0.00767159 -0.000525455 0.0436979 
-0.00778906 -0.000279136 0.0428786 -0.00793064 2.15188e-05 0.0418678 -0.00804598 0.000263766 0.0410431 
-0.00817648 0.000527323 0.0401336 -0.00831794 0.000795709 0.0391942 -0.00844953 0.00103167 0.0383637 
-0.0086271 0.00133023 0.0373115 -0.00882312 0.00162569 0.0362764 -0.00906046 0.00195219 0.0351547 
-0.00924513 0.00219461 0.0343449 -0.00947067 0.00248454 0.0334146 -0.00970952 0.00277926 0.0325182 
-0.00996248 0.00308762 0.0316327 -0.0102487 0.00342552 0.03072 -0.0105789 0.00380394 0.0297609 
-0.0109324 0.00420137 0.0288396 -0.0112366 0.00454063 0.0281198 -0.0115915 0.00493119 0.0273539 
-0.0119812 0.00534992 0.0266033 -0.0124312 0.0058203 0.0258311 -0.0129077 0.00630588 0.0250956 
-0.0133864 0.00677876 0.0244194 -0.0139666 0.00733223 0.0236605 -0.0144319 0.00775744 0.0230922 
-0.0150049 0.00825123 0.0224399 -0.0155892 0.00872948 0.0218195 -0.0161332 0.00915673 0.0212687 
-0.0166438 0.00954207 0.0207642 -0.0171874 0.00994112 0.0202542 -0.0177578 0.0103499 0.0197349 
-0.0183569 0.0107745 0.0192029 -0.0188869 0.0111457 0.0187478 -0.0195958 0.0116508 0.018148 
-0.0202006 0.0120935 0.0176543 -0.0208273 0.0125654 0.0171603 -0.021397 0.0130076 0.0167241 
-0.0220189 0.0134983 0.0162563 -0.0227189 0.014068 0.0157352 -0.0234332 0.0146581 0.0152194 
-0.0240398 0.0151634 0.0147773 -0.0065103 -0.00672395 0.0533888 -0.00672271 -0.00647445 0.0525939 
-0.00694459 -0.00619773 0.0517155 -0.00712799 -0.00595319 0.0509436 -0.00731759 -0.00568169 0.0500902 
-0.00751434 -0.00537281 0.0491282 -0.00766357 -0.00511721 0.0483373 -0.00781846 -0.00482474 0.047433 
-0.007955 -0.00454012 0.0465496 -0.00806778 -0.00427852 0.0457385 -0.00816247 -0.00403303 0.0449799 
-0.00825817 -0.00374097 0.0440817 -0.00834032 -0.00343844 0.0431516 -0.00840449 -0.00316876 0.0423216 
-0.00846067 -0.00289332 0.0414692 -0.00850919 -0.00261279 0.0405907 -0.00855636 -0.00230934 0.0396278 
-0.00860035 -0.00197171 0.03855 -0.0086476 -0.00168857 0.0376428 -0.00869595 -0.00140671 0.0367476 
-0.00875857 -0.0010657 0.0356899 -0.00882543 -0.000759921 0.0347826 -0.00890415 -0.000437409 0.0338798 
-0.00900147 -6.88264e-05 0.0329354 -0.00911083 0.000283542 0.032099 -0.00927483 0.000716921 0.0311429 
-0.00949316 0.00118441 0.0301749 -0.0097654 0.0016556 0.0292443 -0.0100726 0.00210381 0.0283996 
-0.0104403 0.00256501 0.0275659 -0.01088 0.00305407 0.0267237 -0.0112816 0.00345735 0.0260625 
-0.0117985 0.00394705 0.025297 -0.0122542 0.00435924 0.0246905 -0.0127838 0.00482046 0.0240416 
-0.0134229 0.00537503 0.0233137 -0.0139955 0.00585897 0.0226983 -0.0145867 0.00633329 0.0220895 
-0.0153184 0.00687684 0.0213752 -0.0157993 0.00720183 0.0209308 -0.0164403 0.00760941 0.0203482 
-0.0170214 0.00795151 0.0198317 -0.0175451 0.00824374 0.0193729 -0.0181529 0.00856243 0.0188587 
-0.0187944 0.00889026 0.0183245 -0.0195932 0.00928728 0.0176723 -0.0202983 0.00963071 0.017113 
-0.0211537 0.0100377 0.0164684 -0.021933 0.0104123 0.0159068 -0.022578 0.0107296 0.0154609 
-0.0234177 0.0111507 0.0148933 -0.024157 0.0115137 0.0144118 -0.0247536 0.0118109 0.0140283 
-0.0253986 0.0121416 0.013619 -0.00397899 0.00297188 0.0452663 -0.00400854 0.00317342 0.044355 
-0.00404509 0.00337627 0.0433918 -0.00408957 0.00356881 0.0424228 -0.00413589 0.00373266 0.0414825 
-0.0041909 0.00386746 0.0405402 -0.00426525 0.00395897 0.039604 -0.00439631 0.0039944 0.0385878 
-0.00459822 0.00393806 0.0376091 -0.00493733 0.00384275 0.0365102 -0.00532075 0.00376648 0.0355327 
-0.00568775 0.00372125 0.0345079 -0.00602395 0.00373704 0.0334664 -0.00631106 0.00384423 0.0324563 
-0.00656381 0.00405544 0.0314876 -0.00677316 0.00439267 0.0304927 -0.00695991 0.00481636 0.0296551 
-0.00717305 0.00537784 0.0288659 -0.00742512 0.00604247 0.0281855 -0.00770592 0.00675005 0.0276468 
-0.00804843 0.00752184 0.0272619 -0.00846966 0.00834264 0.0269816 -0.00890913 0.00911404 0.0268153 
-0.00940086 0.00986918 0.0267331 -0.00987354 0.0104922 0.0267065 -0.0104269 0.0111153 0.0267119 
-0.0109583 0.011627 0.0267348 -0.0115992 0.0121355 0.0267729 -0.0123269 0.0126112 0.0268114 
-0.0131393 0.0130586 0.0268451 -0.0138599 0.0133783 0.026833 -0.0147294 0.013704 0.0267725 
-0.0157259 0.0140145 0.0266672 -0.0166742 0.0142593 0.0265087 -0.0175507 0.0144552 0.0263079 
-0.018416 0.0146229 0.0260536 -0.0193895 0.0147966 0.0256977 -0.0202998 0.0149432 0.025304 
-0.0210669 0.0150622 0.0249149 -0.0217716 0.0151632 0.0245052 -0.0225332 0.0152779 0.0240003 
[...]
CELL_DATA 62
FIELD FieldData 2
ReasonForTermination 1 62 int
1 1 1 1 1 1 1 1 1 
1 1 1 1 1 1 1 1 1 
1 1 1 1 1 1 1 1 1 
1 1 1 1 1 1 1 1 1 
1 1 1 1 1 1 1 1 1 
1 1 1 1 1 1 1 1 1 
1 1 1 1 1 1 1 1 
METADATA
INFORMATION 0

SeedIds 1 62 int
1 4 7 11 12 15 17 22 26 
32 33 34 37 41 42 47 48 54 
57 59 62 64 67 74 78 79 81 
87 90 91 92 1 4 7 11 12 
15 17 22 26 32 33 34 37 41 
42 47 48 54 57 59 62 64 67 
74 78 79 81 87 90 91 92 
METADATA
INFORMATION 0

POINT_DATA 1938
SCALARS p float
LOOKUP_TABLE default
0.0503393 0.0503482 0.0504709 0.0504801 0.0502887 0.0496788 0.0486318 0.046587 0.0442497 
0.0419549 0.0396063 0.0369612 0.0343788 0.0331885 0.0325986 0.0312474 0.0302691 0.0295551 
0.0272072 0.0238599 0.0210245 0.017425 0.0138997 0.00989726 0.00624443 0.00283738 -0.00180988 
-0.00612032 -0.00787868 -0.00939817 -0.0091027 -0.00874113 -0.00768151 -0.00558217 -0.00423746 -0.00378048 
-0.00266467 -0.00278857 -0.00253399 -0.00113921 0.0530857 0.0529207 0.0527638 0.052657 0.0525272 
0.0523605 0.0521283 0.051846 0.0515816 0.0512674 0.0509522 0.050492 0.0500649 0.0494748 
0.0487851 0.0481238 0.0473793 0.0466496 0.0457925 0.0449317 0.0437892 0.0419432 0.0402426 
0.0387029 0.0369492 0.0348749 0.032759 0.0305975 0.0286909 0.0273675 0.0262853 0.0255904 
0.0249099 0.0240476 0.0229538 0.021942 0.0204788 0.0188152 0.0171541 0.0152132 0.0125359 
0.0101007 0.00816539 0.00621156 0.00466337 0.00391283 0.00343141 0.00335516 0.00369776 0.00383114 
0.00397551 0.00389536 0.00377172 0.0034521 0.00312107 0.00276366 0.00241476 0.00169854 0.000680682 
0.0522678 0.052128 0.0520233 0.0518615 0.051684 0.0515257 0.051291 0.0510212 0.0507712 
0.0504919 0.0502259 0.0499077 0.0494742 0.04902 0.0484375 0.0477781 0.0469559 0.0459454 
0.044416 0.0425484 0.040636 0.0388346 0.0367829 0.0339247 0.0304806 0.0267995 0.0234697 
0.0193778 0.015279 0.0120802 0.00891183 0.00625849 0.00399185 0.00213152 0.00068816 -5.47267e-05 
-0.000353537 -0.000913747 -0.000540838 -0.000695524 -0.000514026 -0.00036763 -0.000158208 -0.000463469 -0.000178679 
-0.000111094 -3.27602e-05 0.051923 0.0518217 0.0517048 0.0515298 0.0513816 0.0512643 0.0511097 
0.0509846 0.050782 0.0505912 0.0504101 0.0502256 0.0500182 0.0497929 0.0495073 0.0492207 
0.0488429 0.0483607 0.0478673 0.047023 0.0460523 0.0446698 0.0434898 0.0418248 0.0400238 
0.0381194 0.0362048 0.0343333 0.0327245 0.0316745 0.0302245 0.0284875 0.0259819 0.0230201 
0.0203722 0.0170269 0.0144358 0.0117646 0.00993047 0.00881895 0.00811346 0.00774567 0.0073738 
0.00713149 0.00695831 0.00647584 0.00598656 0.00567036 0.00555532 0.00473359 0.00359308 0.00250005 
0.000824273 0.0522703 0.0521575 0.0520497 0.0519231 0.0517622 0.0515864 0.0514407 0.0512695 
0.0510822 0.050859 0.0506345 0.0503358 0.0500386 0.0497634 0.04944 0.0491158 0.0487088 
0.048278 0.0479425 0.047551 0.0471139 0.0464641 0.0458148 0.0447952 0.0435254 0.0419194 
0.0402541 0.0386798 0.0374141 0.0363611 0.0351151 0.0339263 0.0320555 0.029852 0.0264043 
0.0219033 0.0178245 0.0136848 0.00945823 0.00772569 0.00621064 0.00568142 0.00583533 0.00646197 
0.00708724 0.00782489 0.00844018 0.0087354 0.00861628 0.0075995 0.00607475 0.00513971 0.00399212 
0.00186655 0.050195 0.0502601 0.0503301 0.0504721 0.0506057 0.0507877 0.0510122 0.0510453 
0.0505575 0.049283 0.04718 0.0446522 0.0416242 0.0387918 0.0365365 0.0351276 0.0341926 
0.033929 0.0335591 0.0320123 0.0299105 0.0275784 0.0240074 0.0203227 0.0175972 0.0151311 
0.0122155 0.00923443 0.00675756 0.002976 0.000603293 -0.00233537 -0.0050403 -0.00637391 -0.00731843 
-0.00685154 -0.00645805 -0.006363 -0.00664968 -0.00660995 -0.00679656 -0.0068012 -0.00672671 -0.00567312 
-0.00434674 -0.000530013 0.0500804 0.0496783 0.0491374 0.0485313 0.0479489 0.0472912 0.0466753 
0.0457002 0.0447138 0.0432357 0.0416261 0.0387494 0.0363559 0.0340457 0.0320358 0.0303664 
0.0293481 0.0284879 0.0273124 0.0254979 0.0232059 0.0200463 0.0154585 0.0124301 0.00823982 
0.00621338 0.00447505 0.0038512 0.00413161 0.00468666 0.00532164 0.00567294 0.00576854 0.00547597 
0.0052832 0.00488385 0.00414656 0.00338592 0.00218838 0.000572281 0.0497287 0.049689 0.0496389 
0.0495842 0.0495307 0.0494607 0.0494203 0.0493322 0.0492609 0.0491545 0.0489777 0.0487632 
0.048492 0.0481682 0.0477715 0.047391 0.0469835 0.0465852 0.0463358 0.0462884 0.0466613 
0.0472884 0.048157 0.0480488 0.0470925 0.0453787 0.042791 0.0409116 0.0368635 0.0344068 
0.0323204 0.0297018 0.0275824 0.0255211 0.023618 0.0212475 0.0195277 0.0170577 0.0146384 
0.00920454 0.00602152 0.00258004 -0.00139848 -0.00366077 -0.00448007 -0.0034342 -0.00346204 -0.00420936 
-0.00436761 -0.00415858 -0.00503708 -0.00511969 -0.00496667 -0.00393666 -0.0027864 -0.00059891 0.0517312 
0.0515661 0.0514467 0.0512932 0.0511674 0.0509647 0.0507912 0.0505843 0.0502909 0.0501114 
0.0498682 0.0495883 0.0492211 0.0488408 0.048379 0.0478524 0.0471503 0.0462102 0.0452711 
0.0442543 0.0426467 0.0407589 0.0388003 0.0369937 0.0351145 0.0332504 0.0318242 0.03029 
0.0286748 0.0268778 0.0239704 0.0212135 0.0179326 0.0150682 0.0119442 0.00951488 0.00830898 
0.00756792 0.00742105 0.00714815 0.00714359 0.00712909 0.00683651 0.00676834 0.00665891 0.0060544 
0.00482349 0.00349859 0.00173064 0.0526255 0.0525379 0.0523924 0.0522294 0.0520782 0.0519528 
0.0518174 0.051643 0.0514324 0.0512281 0.0510013 0.0507434 0.0503482 0.0499801 0.0495318 
0.0490862 0.0487456 0.0484409 0.0482055 0.0479602 0.0477771 0.0476533 0.0475193 0.047337 
0.0471679 0.0469354 0.0464984 0.0461967 0.045666 0.0450469 0.0442675 0.0433559 0.0424115 
0.0414515 0.0406448 0.0399621 0.0389079 0.0378909 0.0369101 0.0360682 0.0352814 0.0343787 
0.0333862 0.0322422 0.0309946 0.0293376 0.0272027 0.0245944 0.0216243 0.018362 0.0139416 
0.00916481 0.00568979 0.0033727 0.00240998 0.00211505 0.00254464 0.00312787 0.0037708 0.0044925 
0.00510525 0.00580416 0.00596242 0.00609824 0.00608608 0.0059494 0.00531455 0.00448999 0.00423922 
0.00371808 0.00204419 0.0504237 0.0505677 0.0506564 0.0506097 0.0499408 0.0487204 0.0464027 
0.0443492 0.0423174 0.0401827 0.037755 0.0367867 0.036497 0.0367957 0.0363877 0.0354791 
0.0333809 0.0312216 0.0291922 0.0259219 0.0228911 0.0197261 0.0179532 0.016066 0.012566 
0.0108495 0.00682656 0.00361771 0.000779417 -0.00201992 -0.0043417 -0.00579344 -0.00635608 -0.00630177 
-0.00610028 -0.00616223 -0.00702095 -0.00658667 -0.00673433 -0.00656191 -0.00642535 -0.00426585 -0.00222337 
0.0500217 0.0500202 0.0500072 0.0499845 0.0499474 0.0498938 0.0498367 0.0497473 0.0496086 
0.0494347 0.0492668 0.0490757 0.0488725 0.0486887 0.048526 0.0483848 0.0482387 0.048108 
0.0479893 0.0478762 0.0477599 0.0476372 0.0474974 0.0473496 0.047234 0.0471713 0.0471656 
0.0472261 0.0472916 0.0473919 0.0473407 0.0471894 0.0470004 0.0466515 0.0462609 0.0457722 
0.0450699 0.0440775 0.0429074 0.0416517 0.0401693 0.0385935 0.0366165 0.0343283 0.0324735 
0.0305623 0.0283932 0.0264001 0.0243169 0.0224196 0.0210195 0.0199801 0.0190919 0.0182097 
0.0173556 0.0166364 0.0160085 0.0153447 0.0145336 0.0138298 0.0129362 0.0121956 0.0114284 
0.0105946 0.00963441 0.00862146 0.00750365 0.00629776 0.00530345 0.00415489 0.00303168 0.00207527 
0.0013616 0.000929432 0.000483244 0.000250585 -3.66908e-05 -0.000279558 -0.000467242 -0.000593209 -0.000644107 
-0.00042888 0.0511135 0.0509761 0.050846 0.0507377 0.050639 0.0505487 0.0504801 0.0504077 
0.050399 0.0504286 0.0504579 0.0505037 0.0505747 0.0505137 0.0502587 0.0497744 0.0489084 
0.0476631 0.0457986 0.0433435 0.0412187 0.0392452 0.0373642 0.0351405 0.0325103 0.0300534 
0.0258644 0.0219858 0.0191092 0.0162309 0.0133392 0.0101142 0.00802212 0.00639701 0.00541869 
0.00472398 0.00445434 0.00420867 0.00388277 0.0034551 0.00280102 0.00261016 0.00225857 0.001933 
0.00186716 0.0014461 0.00104944 0.000690717 0.000538135 0.00077948 0.000662323 0.000396121 0.0506567 
0.0503168 0.0498343 0.0492318 0.0486273 0.0477992 0.0469458 0.0456384 0.0446154 0.0434322 
0.0418899 0.0399987 0.0378653 0.0352389 0.0328661 0.030781 0.028657 0.0268109 0.0248169 
0.0219132 0.0193665 0.0170256 0.0145332 0.0108515 0.00855137 0.00613252 0.00460651 0.00449572 
0.00427307 0.00434103 0.00455339 0.00459475 0.00457014 0.00457952 0.00448774 0.00442604 0.00399313 
0.0031053 0.00145999 0.051614 0.05138 0.0511594 0.0509225 0.0506452 0.0503204 0.0500188 
0.0497529 0.0493938 0.0490546 0.048687 0.0484399 0.0482401 0.0481207 0.0480064 0.0478578 
0.0476861 0.047532 0.0472803 0.0469303 0.046509 0.0460299 0.0454837 0.0449238 0.0443384 
0.0438645 0.0431899 0.0425157 0.0411664 0.0394771 0.0377531 0.0358912 0.033264 0.0311167 
0.0297109 0.0278021 0.0252504 0.0222701 0.018888 0.0152398 0.0119403 0.00923713 0.00712186 
0.00580495 0.00469451 0.00424693 0.00449944 0.00496632 0.0054555 0.00608118 0.00665265 0.00722672 
0.00772029 0.00803155 0.00830253 0.00850729 0.00858007 0.00818491 0.00729617 0.00606029 0.00547073 
0.00544534 0.00545918 0.00452806 0.00313652 0.000963769 0.0530979 0.0529476 0.052807 0.0526614 
0.0525341 0.0523722 0.0521785 0.0519723 0.051704 0.0514108 0.051074 0.0506645 0.0501905 
0.0495281 0.0489008 0.0482972 0.0476173 0.0470042 0.0460442 0.0449378 0.0438624 0.0418917 
0.0392976 0.0368243 0.0348413 0.0327492 0.0310505 0.0297808 0.0285293 0.0274441 0.0268054 
0.0254821 0.0241768 0.0225636 0.0204539 0.0181286 0.0142953 0.0109397 0.00852445 0.00655276 
0.00452486 0.00353783 0.00328162 0.00355542 0.00397276 0.00416539 0.00441158 0.00440781 0.00417685 
0.0037785 0.00348027 0.00312861 0.00258182 0.00150324 0.00026889 0.0502447 0.0501589 0.050003 
0.049895 0.0498156 0.0496834 0.0495631 0.0494639 0.0493174 0.0491923 0.0488844 0.0485344 
0.0480526 0.0473649 0.0464395 0.0454267 0.0443552 0.0429488 0.0417535 0.0410631 0.0409257 
0.0409008 0.0406849 0.0394458 0.0376295 0.0356691 0.0326164 0.0286535 0.0249208 0.0210482 
0.0167639 0.013344 0.00989331 0.00622582 0.00322542 -0.000504934 -0.00293384 -0.00456566 -0.00587306 
-0.00643627 -0.00600132 -0.00510333 -0.00383859 -0.0026662 -0.00274216 -0.00203651 -0.000537473 0.0501656 
0.0499104 0.0491671 0.0484415 0.0473042 0.0462055 0.0450973 0.0434852 0.0420287 0.0404111 
0.038337 0.0366179 0.0341486 0.0316628 0.0293742 0.0269998 0.0236521 0.0213891 0.0183818 
0.0157168 0.0137699 0.0115201 0.0089978 0.00710898 0.00535838 0.00403085 0.00303706 0.00288204 
0.00289807 0.00265051 0.00261162 0.00258149 0.00260615 0.00253354 0.00262949 0.00255229 0.00223927 
0.00114977 0.0513138 0.0510202 0.0507822 0.0503472 0.0499484 0.0495678 0.0490856 0.0484351 
0.0476442 0.0467303 0.0455366 0.0437526 0.0421985 0.0400105 0.0377503 0.0352801 0.0324636 
0.02953 0.0255626 0.0225206 0.0193722 0.0159491 0.0128784 0.0101589 0.00780482 0.00491868 
0.00325967 0.00211582 0.00151655 0.0017729 0.00124281 0.00106023 0.000720842 0.00116811 0.00108295 
0.000673333 0.000387798 0.000490514 -7.3342e-05 0.0497181 0.0491933 0.0485412 0.0478754 0.0470511 
0.0461559 0.0453092 0.0440409 0.0423801 0.0397952 0.0370914 0.0340195 0.0313609 0.0291492 
0.0272832 0.0255442 0.0236148 0.0219075 0.0193289 0.0161931 0.0128571 0.0100814 0.00680216 
0.00510697 0.00436437 0.00436152 0.00440014 0.00473419 0.00513798 0.005057 0.00501011 0.00498287 
0.00484393 0.00454631 0.00404171 0.00290185 0.00119455 0.0517516 0.0516918 0.0515617 0.0513866 
0.0512719 0.0511402 0.0509787 0.0508603 0.0507074 0.0505515 0.0504054 0.0503093 0.0501746 
0.0500637 0.0499252 0.049772 0.0495208 0.0491331 0.0484167 0.0474725 0.0463959 0.0446276 
0.042346 0.0397765 0.0363719 0.032814 0.0301303 0.0267693 0.0236508 0.021415 0.018849 
0.0166724 0.0145918 0.012053 0.00975734 0.00805258 0.00589774 0.00334482 0.00204639 0.000997171 
-0.000710957 -0.00244002 -0.00337947 -0.00412254 -0.00526516 -0.00571548 -0.00538066 -0.00493359 -0.0034751 
-0.00170073 0.050488 0.0504174 0.0504006 0.0503972 0.0504151 0.0504591 0.0505194 0.0505912 
0.0506955 0.0507893 0.0509007 0.0510219 0.0510831 0.0511159 0.0510312 0.0505748 0.0498558 
0.0487713 0.047745 0.0466976 0.0455097 0.0440512 0.0425122 0.0411067 0.0397546 0.0385733 
0.0374521 0.0361497 0.0347265 0.0333303 0.0318653 0.0298986 0.0275685 0.024638 0.0220049 
0.0190106 0.0159262 0.0124855 0.0103677 0.0084198 0.00708818 0.00640971 0.00597343 0.00560708 
0.00526563 0.00477766 0.00448427 0.00405156 0.00358976 0.00333093 0.00314109 0.0028804 0.00257386 
0.00242137 0.00208306 0.00171528 0.00137997 0.00114507 0.00069487 0.000546976 0.000656778 0.000546514 
0.000336309 0.0507614 0.0505781 0.0504257 0.0502664 0.0500973 0.0498994 0.0497033 0.049443 
0.0490912 0.0486015 0.0477741 0.0465943 0.0452122 0.0433408 0.0410582 0.0382606 0.0352942 
0.0328469 0.0295084 0.0268135 0.0244164 0.0221444 0.0202161 0.0180647 0.0159756 0.0139798 
0.0116023 0.00915133 0.00756851 0.00566705 0.00440715 0.00283774 0.00178432 8.19781e-06 -0.000865178 
-0.00189507 -0.00254716 -0.00346427 -0.00398271 -0.00323155 -0.00263382 -0.00127194 0.0484829 0.0483103 
0.0481575 0.0480115 0.0478762 0.0478057 0.0477571 0.0476915 0.0476109 0.0475037 0.0473705 
0.0471796 0.0469556 0.0465861 0.0461517 0.0456278 0.0449088 0.0439324 0.0428987 0.0418725 
0.0407319 0.0397143 0.0386684 0.0373304 0.036155 0.0352808 0.0343232 0.0332924 0.032238 
0.0308681 0.0295289 0.0277299 0.025282 0.0217179 0.0183243 0.0143276 0.0103818 0.0066018 
0.00375489 0.00223716 0.00166519 0.00158824 0.00209895 0.00268593 0.00334757 0.00388432 0.0043079 
0.00460008 0.00476146 0.00480997 0.00471555 0.0045511 0.00428346 0.00390537 0.00345053 0.00299676 
0.00252858 0.00220092 0.00186886 0.00135439 0.00071224 0.000213492 0.0494891 0.0494404 0.0493747 
0.0492648 0.049092 0.0489265 0.0486629 0.0483787 0.0481142 0.047808 0.047551 0.0471757 
0.0468708 0.0467606 0.0467797 0.0469768 0.0476159 0.0482231 0.0484868 0.0478741 0.0468149 
0.0453893 0.0435067 0.0409619 0.0383822 0.0350001 0.0316826 0.0275512 0.0225836 0.0178578 
0.0138256 0.00994066 0.00608602 0.000994638 -0.00260877 -0.00494441 -0.00619775 -0.00620306 -0.00574576 
-0.00430265 -0.00313401 -0.00154576 -0.000510476 -0.000323675 -0.00126099 -0.00179963 -0.00116499 -0.000267058 
0.0519134 0.0516998 0.0515242 0.0513257 0.0511214 0.0509013 0.0507254 0.0505815 0.0504533 
0.0503847 0.0503229 0.050277 0.0502427 0.0501848 0.0501371 0.0499913 0.049595 0.049045 
0.0480186 0.0467657 0.0450144 0.0426357 0.040448 0.0384499 0.0360698 0.0331693 0.0307328 
0.0271064 0.0230841 0.0192563 0.0156148 0.0105268 0.00774017 0.00550075 0.00430829 0.00358082 
0.00308574 0.00235761 0.00208858 0.00168528 0.00145786 0.00117707 0.00118102 0.000938016 0.000777643 
0.000847072 0.00103914 0.00111681 0.000724663 5.04178e-05 0.0511711 0.0510596 0.0509364 0.0507928 
0.050633 0.0504646 0.0502955 0.0501488 0.0499745 0.0498066 0.0496253 0.0493905 0.0491407 
0.048802 0.0483274 0.0475824 0.0466144 0.0454213 0.0438694 0.0425857 0.0410776 0.0391173 
0.037312 0.0360196 0.034802 0.03332 0.0326484 0.031253 0.029191 0.0263878 0.0240387 
0.0206443 0.0180266 0.0148948 0.0129342 0.0111502 0.00959727 0.00889636 0.0080658 0.00734585 
0.00701292 0.0061207 0.00541089 0.00475985 0.00395805 0.00328815 0.00262361 0.00187113 0.000758523 
9.78559e-06 0.0493164 0.0491597 0.0490358 0.0488841 0.0487542 0.0485946 0.0483533 0.048036 
0.0477216 0.0472842 0.0466783 0.0461433 0.0457968 0.0456812 0.0457783 0.0464767 0.0468223 
0.0468527 0.0458456 0.0444067 0.0422481 0.0397035 0.0365459 0.0334786 0.0294385 0.0257612 
0.0219147 0.0180973 0.0142213 0.0107394 0.00683836 0.00209255 -0.00207762 -0.00414703 -0.00590482 
-0.00688655 -0.00549386 -0.00475736 -0.00312288 -0.002 -0.000624255 -0.000781692 -0.000598176 3.84167e-05 
1.49305e-05 0.0498081 0.0494484 0.0491329 0.0488678 0.048596 0.0483327 0.0481317 0.0478764 
0.0475424 0.0471343 0.0466796 0.0460797 0.0452326 0.0445796 0.043754 0.0429762 0.042417 
0.0418067 0.0406093 0.0390467 0.037314 0.0354685 0.0314389 0.0282964 0.0248174 0.0205853 
0.0167672 0.0136804 0.010903 0.00922691 0.0080306 0.00763033 0.00772372 0.00801129 0.00848598 
0.00898444 0.00969247 0.0101195 0.0103765 0.0106864 0.0110698 0.0110819 0.0106305 0.00931256 
0.00761418 0.00634085 0.00566991 0.00525751 0.00456122 0.00227141 0.0530397 0.0529399 0.0528321 
0.0526855 0.0525659 0.0524373 0.0523026 0.0521951 0.0519993 0.0518047 0.0516112 0.0512604 
0.0509243 0.0506383 0.0502997 0.049815 0.0493413 0.0486955 0.0479734 0.0472921 0.0464532 
0.045448 0.0443695 0.0428095 0.0405523 0.0381209 0.0352958 0.0324353 0.0304856 0.0288168 
0.0276496 0.0263936 0.0249655 0.0233257 0.0211885 0.0174412 0.013776 0.0106934 0.00672863 
0.00497614 0.00377464 0.00373653 0.00408633 0.00445611 0.00494258 0.00519383 0.00509768 0.00476647 
0.0045366 0.00419711 0.00374274 0.00296181 0.00137499 0.0535081 0.0534432 0.0533794 0.0533213 
0.0532501 0.0531677 0.0530577 0.0529243 0.0527898 0.0526802 0.0525464 0.0524101 0.0522559 
0.052092 0.0519185 0.0517046 0.0515175 0.0513112 0.0510874 0.0508453 0.050598 0.050306 
0.0499516 0.0495444 0.049136 0.0486352 0.0481189 0.0475748 0.0470387 0.0464312 0.0456534 
0.0446733 0.0437177 0.0422911 0.0406591 0.0388521 0.0366939 0.0342564 0.0318496 0.0300286 
0.0276336 0.0260553 0.0247964 0.0234792 0.0222461 0.0209616 0.0197302 0.0182509 0.0163357 
0.0140737 0.011833 0.0101163 0.00887301 0.00775464 0.00687337 0.00587698 0.00492983 0.00433149 
0.00402393 0.00386495 0.00372715 0.00351149 0.00325826 0.00298325 0.00270021 0.00230331 0.00176555 
0.00106349 0.000455474 -0.000101604 -0.000437807 -0.000532481 -0.000381093 -0.000204965 -0.000122835 -5.00375e-05 
0.0503393 0.0502456 0.0502162 0.0502137 0.050222 0.050274 0.0503578 0.0504097 0.0504927 
0.0506207 0.0507711 0.0508841 0.0510256 0.0511085 0.0511895 0.0512769 0.0530857 0.0531981 
0.0532977 0.0534189 0.0522678 0.0524135 0.0525493 0.0527083 0.0528475 0.051923 0.0519881 
0.0522703 0.052368 0.050195 0.0501507 0.050168 0.0502139 0.0502693 0.0503361 0.0504384 
0.0505636 0.050719 0.0508444 0.0509544 0.0511096 0.0512092 0.0500804 0.0504148 0.0508247 
0.0510869 0.0513897 0.0515993 0.0518203 0.0520089 0.052146 0.0522835 0.0524198 0.0525667 
0.0527136 0.052794 0.0528927 0.0529842 0.0497287 0.0498431 0.0499642 0.0501089 0.0502764 
0.0504215 0.0505626 0.0506862 0.0508093 0.0509742 0.0512061 0.0514686 0.0518224 0.0517312 
0.0518388 0.0519651 0.0520882 0.0526255 0.0527127 0.0527732 0.0504237 0.0503356 0.0502376 
0.0501771 0.0501139 0.0500751 0.0500988 0.0501426 0.0501855 0.0502304 0.0503201 0.0504122 
0.0505492 0.0506865 0.0508158 0.0509354 0.051027 0.0500217 0.0500084 0.0499876 0.0499642 
0.0499447 0.0499274 0.0499166 0.0499053 0.0498963 0.0499246 0.0499755 0.0500612 0.0501659 
0.0502659 0.0503667 0.0505116 0.050664 0.0507986 0.0509005 0.0509937 0.0511336 0.0513612 
0.0511135 0.0512372 0.0513313 0.0515537 0.05175 0.0518749 0.0519938 0.0520858 0.0522012 
0.0523571 0.0525254 0.0506567 0.0510052 0.0513354 0.0515732 0.0517952 0.0519899 0.0521563 
0.0522495 0.0524257 0.052591 0.0526736 0.0527625 0.0528455 0.051614 0.0518345 0.0519612 
0.052099 0.0522458 0.0524053 0.052562 0.0530979 0.0531901 0.0533226 0.0534014 0.0502447 
0.0503521 0.0505229 0.0506816 0.0508478 0.0510182 0.0511211 0.0512411 0.0513482 0.0501656 
0.050653 0.0511255 0.0516017 0.0520029 0.0522507 0.0524252 0.052622 0.0527889 0.0529162 
0.0530423 0.0531769 0.0533107 0.0534602 0.0535978 0.0513138 0.0515228 0.0517171 0.0519048 
0.0520088 0.0521429 0.0523287 0.0524516 0.0525533 0.0527249 0.0528172 0.0497181 0.0501578 
0.0505532 0.050838 0.051173 0.0514378 0.0516711 0.0518706 0.0520812 0.0522495 0.0523875 
0.0525109 0.0526618 0.0527379 0.0528341 0.0529285 0.0517516 0.0518967 0.0519767 0.050488 
0.0505938 0.0507181 0.0508668 0.0510149 0.0511766 0.05135 0.0515174 0.0517032 0.0518312 
0.0519299 0.0520314 0.0521014 0.0521631 0.0522445 0.0523367 0.05244 0.0525902 0.0527797 
0.0529956 0.0507614 0.0508908 0.0510104 0.0511286 0.0513 0.0513731 0.0515569 0.0517041 
0.0517842 0.051899 0.0519898 0.0484829 0.048693 0.0489665 0.0493299 0.0497045 0.0500915 
0.0503754 0.0506679 0.0508944 0.051075 0.0512654 0.0514069 0.0515197 0.0516237 0.0517335 
0.0518542 0.0519773 0.0520864 0.0521758 0.052267 0.052376 0.052491 0.0526211 0.0527188 
0.0528158 0.0528977 0.0529632 0.053023 0.0530974 0.0531777 0.0494891 0.0495276 0.049561 