# vtk DataFile Version 5.0
vtk output
ASCII
DATASET POLYDATA
FIELD FieldData 1
CasePath 1 79 char
47 104 111 109 101 47 109 97 117 
114 111 47 71 97 114 114 97 104 
97 109 66 111 120 47 99 97 115 
101 115 47 99 97 115 111 45 97 
56 52 52 49 53 50 47 99 102 
100 47 112 108 97 110 110 105 110 
103 47 48 49 46 48 49 45 49 
46 53 76 109 105 110 45 48 46 
48 55 56 45 50 47 0 
METADATA
INFORMATION 0

POINTS 11581 float
-0.00454311 -0.00634422 -0.0407622 -0.00457114 -0.00650935 -0.0397803 -0.00459872 -0.00667458 -0.0387956 
-0.00462532 -0.00683829 -0.0378162 -0.00465053 -0.00700076 -0.0368356 -0.00467408 -0.00716334 -0.0358444 
-0.00469429 -0.00732212 -0.0348705 -0.00471 -0.00746861 -0.0339623 -0.00472229 -0.00760705 -0.0330925 
-0.00473148 -0.00774629 -0.0322079 -0.00473673 -0.0078631 -0.0314536 -0.00473923 -0.00800656 -0.0305138 
-0.00473697 -0.00814477 -0.0295883 -0.00472835 -0.00829227 -0.0285736 -0.00471001 -0.00845196 -0.0274458 
-0.00468606 -0.00858167 -0.0264984 -0.00465324 -0.00870996 -0.025526 -0.00460746 -0.00884466 -0.0244627 
-0.00454764 -0.00897605 -0.0233791 -0.00449273 -0.00907263 -0.0225419 -0.0044251 -0.00917114 -0.0216442 
-0.00434475 -0.00927045 -0.0206985 -0.00425976 -0.00935953 -0.0198032 -0.00416413 -0.00944682 -0.0188823 
-0.00403228 -0.00954799 -0.0177412 -0.00391761 -0.00962158 -0.0168421 -0.00379705 -0.00968952 -0.0159609 
-0.0036772 -0.00974939 -0.0151362 -0.00352196 -0.00981749 -0.0141316 -0.00338597 -0.00986774 -0.0133081 
-0.00323904 -0.00991472 -0.0124642 -0.00306271 -0.00996277 -0.0115035 -0.00285953 -0.0100098 -0.0104515 
-0.00268157 -0.0100454 -0.00957062 -0.00247349 -0.0100801 -0.00858476 -0.00227992 -0.0101057 -0.00771079 
-0.00206845 -0.0101264 -0.00679857 -0.00186256 -0.0101421 -0.00594324 -0.00161713 -0.0101551 -0.00496326 
-0.00141435 -0.0101607 -0.00418828 -0.00115743 -0.0101617 -0.00324584 -0.000897399 -0.0101566 -0.00233552 
-0.000658754 -0.0101489 -0.001527 -0.000409942 -0.0101377 -0.00070985 -0.000114045 -0.0101186 0.000216296 
0.000186193 -0.0100928 0.00111134 0.000562258 -0.0100538 0.00217719 0.000890026 -0.0100156 0.00306342 
0.00124171 -0.00996915 0.00396615 0.00160584 -0.0099159 0.00485558 0.00194022 -0.00986172 0.00564055 
0.00227972 -0.00980265 0.00640976 0.00273042 -0.0097196 0.00737593 0.00315069 -0.00963761 0.00822195 
0.00359326 -0.00954702 0.00906857 0.00410168 -0.00943942 0.00998261 0.0046506 -0.00931922 0.0109166 
0.0051958 -0.00919854 0.0117902 0.00579098 -0.00906882 0.0126812 0.00642714 -0.00893349 0.0135609 
0.00694181 -0.00882707 0.0142342 0.00751951 -0.00870885 0.0149669 0.00826891 -0.00856678 0.0158426 
0.00899887 -0.00843813 0.0166476 0.0097805 -0.00831562 0.0174475 0.0105247 -0.00821257 0.0181557 
0.0112153 -0.0081233 0.0187841 0.0118675 -0.00805232 0.0193389 0.0126113 -0.00798845 0.0199253 
0.0134759 -0.00792507 0.0205777 0.014287 -0.00788116 0.0211427 0.0150596 -0.00785398 0.0216581 
0.0159017 -0.00784275 0.0222 0.0168026 -0.00784227 0.0227623 0.0175123 -0.00784811 0.0232003 
0.0183918 -0.00785482 0.0237442 0.0192198 -0.00785908 0.0242444 0.0199787 -0.00785081 0.024695 
0.0206961 -0.00782725 0.0251147 0.0214884 -0.00776388 0.0255719 0.0222084 -0.00767624 0.0259685 
0.0229172 -0.00755738 0.0263419 0.0237267 -0.00737161 0.0267446 0.0244849 -0.00714927 0.0270928 
0.0252056 -0.00688285 0.0274028 0.0259724 -0.00654505 0.0276957 0.0267255 -0.00615028 0.0279484 
0.027514 -0.00567585 0.0281885 0.0282272 -0.00519612 0.028396 0.0289947 -0.00460964 0.0286237 
0.0297761 -0.00392087 0.028864 0.0303031 -0.00339857 0.0290357 0.0308288 -0.00281495 0.0292175 
0.0313644 -0.00213854 0.029419 0.0317651 -0.00157367 0.0295815 0.0322374 -0.000833338 0.0297925 
0.0326531 -0.000116064 0.0300032 0.0330398 0.000595006 0.030221 0.033378 0.00124009 0.0304324 
0.0337449 0.00195044 0.0306798 0.0341066 0.00264349 0.0309377 0.03437 0.00314117 0.0311323 
0.0346086 0.00358242 0.0313114 0.0349796 0.00424945 0.0315932 0.0352913 0.00479692 0.0318321 
0.0357373 0.00555827 0.0321748 0.0361049 0.00616902 0.0324566 0.0364898 0.00679127 0.0327466 
0.0369567 0.00752228 0.0330864 0.0373142 0.00806566 0.0333341 0.037811 0.00880104 0.0336601 
0.0383281 0.00954213 0.0339761 0.0387728 0.010163 0.0342344 0.0392822 0.0108571 0.0345139 
0.0398526 0.0115964 0.0347949 0.0404222 0.0122893 0.0350408 0.0410216 0.0129655 0.0352457 
0.0416379 0.0136228 0.0354035 0.0423229 0.0143127 0.0355158 0.0430038 0.0149622 0.0355605 
0.0436417 0.0155411 0.0355351 0.0444197 0.0162285 0.0354144 0.0450932 0.0168176 0.0352169 
0.0457769 0.0174252 0.0348824 0.0463499 0.0179813 0.0344786 0.0468586 0.0185204 0.0339287 
0.0471068 0.0188095 0.0335219 0.0472861 0.0190394 0.0331444 0.0474358 0.0192585 0.032738 
0.0475554 0.0194804 0.0322841 0.047648 0.0197284 0.0317564 0.0476967 0.019999 0.031173 
0.0476972 0.0200053 0.0311594 -0.00531294 0.00228584 -0.0394909 -0.00531159 0.00208884 -0.0385271 
-0.00531315 0.00189996 -0.0375854 -0.00531615 0.00171017 -0.0366314 -0.00532064 0.00153536 -0.0357432 
-0.00532503 0.00137687 -0.0349312 -0.00533091 0.00118031 -0.0339106 -0.0053356 0.000992368 -0.0329264 
-0.00533814 0.0008193 -0.0320101 -0.00533792 0.000639819 -0.0310481 -0.00533502 0.000493044 -0.0302535 
-0.00532901 0.000333423 -0.0293816 -0.00531877 0.000169268 -0.0284743 -0.00530319 5.35091e-06 -0.0275555 
-0.00528177 -0.000155599 -0.0266421 -0.00525645 -0.000298959 -0.0258198 -0.00521793 -0.000471928 -0.0248127 
-0.00516461 -0.000657601 -0.0237114 -0.00511269 -0.000803206 -0.0228318 -0.00504831 -0.000954545 -0.0218987 
-0.00498281 -0.00108502 -0.0210763 -0.00490509 -0.00122125 -0.0202019 -0.00480094 -0.00137915 -0.019165 
-0.00469297 -0.00152097 -0.0182023 -0.0045763 -0.00165613 -0.0172536 -0.00444415 -0.00179159 -0.0162736 
-0.00430955 -0.0019174 -0.015325 -0.00417403 -0.00203167 -0.0144311 -0.00401178 -0.00215608 -0.0134064 
-0.00387439 -0.00225144 -0.0125809 -0.00368301 -0.00237127 -0.0114823 -0.00351472 -0.00246724 -0.0105474 
-0.00333682 -0.00255936 -0.00958896 -0.00317216 -0.0026375 -0.00872364 -0.00299065 -0.00271639 -0.00779159 
-0.00277637 -0.00280067 -0.00670895 -0.00257949 -0.00286923 -0.00574242 -0.00238362 -0.00292909 -0.00480004 
-0.00216191 -0.00298767 -0.0037486 -0.00195606 -0.00303366 -0.00279422 -0.00175003 -0.00307158 -0.0018617 
-0.00151692 -0.00310521 -0.000833325 -0.00130301 -0.00312723 8.34064e-05 -0.00105978 -0.00314213 0.00110008 
-0.000824842 -0.00314544 0.0020556 -0.000561566 -0.00313772 0.00309544 -0.000326826 -0.00311998 0.00400159 
-1.72734e-05 -0.0030801 0.00516741 0.000228219 -0.00303428 0.00607079 0.000528053 -0.00296037 0.00715145 
0.000815705 -0.00287193 0.00817374 0.00103082 -0.00279184 0.00892948 0.00124849 -0.00269846 0.00968919 
0.00148267 -0.00258443 0.010506 0.00172721 -0.00244946 0.0113536 0.0020148 -0.00226948 0.0123489 
0.00227253 -0.00208605 0.0132475 0.00254077 -0.00186715 0.0141968 0.00282545 -0.00159977 0.0152313 
0.00306119 -0.00134819 0.0161118 0.00330573 -0.00105482 0.0170499 0.00354823 -0.000721903 0.0180185 
0.00373867 -0.000422664 0.0188281 0.00391206 -9.28608e-05 0.0196543 0.00409867 0.000300287 0.0205871 
0.00424707 0.000668627 0.0214058 0.00438313 0.00108555 0.0222639 0.00450836 0.001569 0.0231796 
0.00459981 0.0020236 0.0239666 0.00466593 0.00249059 0.0246922 0.00470056 0.00309405 0.0255069 
0.00468573 0.00366924 0.0261844 0.00458405 0.00438264 0.0269073 0.00432533 0.00522398 0.0275971 
0.00398851 0.0059184 0.0280612 0.00352466 0.00663121 0.0284445 0.00294796 0.00733779 0.0287359 
0.00241044 0.00789557 0.0289282 0.00185641 0.00841825 0.0290943 0.00136592 0.00883292 0.0292017 
0.000872993 0.00921013 0.0292773 0.000205379 0.00969405 0.0293685 -0.000381248 0.0100673 0.0293898 
-0.000851666 0.0103424 0.0293771 -0.00130884 0.0106024 0.0293506 -0.00187031 0.0109124 0.0293004 
-0.00237828 0.011185 0.0292373 -0.00290734 0.0114637 0.029153 -0.00340556 0.0117248 0.0290579 
-0.00399222 0.0120301 0.0289269 -0.00457862 0.0123303 0.0287782 -0.00507314 0.0125777 0.0286411 
-0.00558688 0.0128301 0.0284824 -0.00616253 0.013111 0.0282895 -0.00663973 0.0133449 0.0281197 
-0.00711557 0.0135763 0.0279429 -0.0076064 0.013809 0.0277544 -0.0080241 0.0140018 0.0275899 
-0.00853726 0.0142348 0.0273835 -0.00905087 0.0144655 0.0271756 -0.00961219 0.0147167 0.0269518 
-0.0100281 0.0149014 0.0267878 -0.0104968 0.0151038 0.0266065 -0.0109657 0.0152983 0.0264287 
-0.0114586 0.0154948 0.0262441 -0.0118919 0.0156651 0.0260822 -0.0123297 0.015841 0.0259171 
-0.0127689 0.016035 0.0257492 -0.0132578 0.0162775 0.0255539 -0.0138642 0.0166283 0.0253024 
-0.014337 0.0169427 0.0250969 -0.0147928 0.0172807 0.0248904 -0.0152503 0.0176437 0.0246825 
-0.0156393 0.0179652 0.0245051 -0.0160224 0.0182891 0.0243318 -0.0163806 0.0185963 0.0241718 
-0.0167736 0.0189383 0.0239963 -0.0171493 0.0192685 0.0238264 -0.0175428 0.0196152 0.0236435 
-0.017891 0.019921 0.0234759 -0.0182998 0.0202787 0.0232695 -0.018736 0.020658 0.0230308 
-0.0191512 0.0210119 0.0227856 -0.0195243 0.021322 0.02255 -0.0199135 0.0216353 0.022293 
-0.0203249 0.021958 0.0220219 -0.0208018 0.022327 0.0217226 -0.021214 0.0226395 0.021476 
-0.0216262 0.0229463 0.0212392 -0.0220769 0.0232722 0.0209916 0.00116459 -0.00612966 -0.0553434 
0.00114362 -0.00620832 -0.0542943 0.00111129 -0.00625862 -0.0533591 0.00105709 -0.00632207 -0.052181 
0.000986694 -0.00636942 -0.0511229 0.00089835 -0.00643148 -0.0500158 0.000799353 -0.00650386 -0.0489211 
0.000686711 -0.00659481 -0.047806 0.0005815 -0.00669536 -0.0467907 0.000492123 -0.00679083 -0.04593 
0.000385641 -0.00692159 -0.0448694 0.000288384 -0.0070577 -0.0438572 0.000198849 -0.00719517 -0.0428926 
0.000101573 -0.00735933 -0.0417906 1.36155e-05 -0.00751196 -0.040766 -7.44485e-05 -0.00766976 -0.0397052 
-0.000164011 -0.0078372 -0.0385984 -0.000232248 -0.00796873 -0.0377159 -0.000287534 -0.00808847 -0.0369154 
-0.000342173 -0.00821575 -0.0360589 -0.000394768 -0.00834167 -0.0351912 -0.000435517 -0.00844696 -0.0344455 
[...]
CELL_DATA 165
FIELD FieldData 2
ReasonForTermination 1 165 int
4 1 4 4 4 1 1 1 1 
1 1 1 4 1 4 4 4 4 
1 4 4 4 1 1 4 4 4 
1 4 1 1 1 4 4 1 1 
4 1 1 4 4 4 1 1 4 
4 4 4 4 1 1 4 1 4 
4 1 1 4 1 4 3 1 1 
4 1 4 4 4 1 4 4 4 
1 1 4 4 1 1 4 1 4 
4 4 1 1 1 1 1 1 1 
1 1 1 1 1 1 1 1 1 
1 1 1 1 1 1 1 1 1 
1 1 1 1 1 1 1 1 1 
1 1 1 1 1 1 1 1 1 
1 1 1 1 1 1 1 1 1 
1 1 1 1 1 1 1 1 1 
1 1 1 1 1 1 1 1 1 
1 1 1 1 1 1 1 1 1 
1 1 1 
METADATA
INFORMATION 0

SeedIds 1 165 int
0 1 2 3 4 5 6 8 9 
10 12 13 15 16 17 18 19 21 
22 23 24 25 26 27 29 30 31 
32 33 34 35 36 37 38 39 40 
41 42 43 44 45 46 47 49 52 
53 54 55 56 57 58 59 60 62 
63 65 66 67 68 69 70 71 72 
73 74 76 77 78 79 80 81 82 
83 84 85 87 88 89 91 92 93 
96 97 0 1 2 3 4 5 6 
8 9 10 12 13 15 16 17 18 
19 21 22 23 24 25 26 27 29 
30 31 32 33 34 35 36 37 38 
39 40 41 42 43 44 45 46 47 
49 52 53 54 55 56 57 58 59 
60 62 63 65 66 67 68 69 70 
71 72 73 74 76 77 79 80 81 
82 83 84 85 87 88 89 91 92 
93 96 97 
METADATA
INFORMATION 0

POINT_DATA 11581
SCALARS p float
LOOKUP_TABLE default
0.0513311 0.0512432 0.051153 0.051066 0.0509833 0.0509072 0.050815 0.0507236 0.0506465 
0.0505518 0.0504787 0.0503923 0.0502904 0.050179 0.0500644 0.0499627 0.0498775 0.0497665 
0.0496718 0.0496008 0.0495255 0.0494529 0.0493748 0.0493171 0.0492271 0.0491541 0.0490828 
0.0490303 0.0489496 0.0488809 0.0488277 0.0487431 0.0486557 0.0485994 0.0485246 0.0484689 
0.0483997 0.0483513 0.0482962 0.048246 0.0481789 0.0481472 0.0481284 0.0480734 0.0480449 
0.048015 0.0479883 0.0479746 0.0479719 0.0479897 0.0479986 0.0480245 0.0480565 0.0480747 
0.0480988 0.0481169 0.0481738 0.0481677 0.0481872 0.048192 0.0482017 0.0482142 0.0482046 
0.0481926 0.048123 0.0481464 0.0480539 0.0479908 0.0478381 0.0476535 0.0473779 0.0470432 
0.0466557 0.0462769 0.0459583 0.0456784 0.0454428 0.0452815 0.0451933 0.0450286 0.0449169 
0.0447242 0.0444364 0.0440959 0.0435182 0.0424642 0.0409862 0.0390475 0.0371044 0.0348741 
0.0324959 0.0308111 0.0287758 0.0266721 0.0245574 0.0214189 0.0178227 0.0141979 0.0109944 
0.00751305 0.00481126 0.00326232 0.00256449 0.00177684 0.00142763 0.00152247 0.00196813 0.00268247 
0.00358831 0.00417357 0.00506067 0.00582566 0.00635347 0.0071887 0.00828224 0.00938292 0.0104565 
0.0113365 0.0127155 0.0145851 0.016272 0.0182773 0.0200762 0.0211546 0.0212656 0.0215574 
0.0209444 0.0203197 0.0193223 0.0177925 0.0157329 0.0124168 0.0123329 0.0512462 0.0511636 
0.051076 0.0509927 0.0509102 0.0508273 0.0507209 0.0506138 0.0505234 0.0504185 0.0503228 
0.0502316 0.0501064 0.0499831 0.0498429 0.0497537 0.0496177 0.049479 0.0493812 0.0492678 
0.0491906 0.0490982 0.0489891 0.0488753 0.0487933 0.0486975 0.0486058 0.0485235 0.0484341 
0.0483443 0.0482632 0.0481853 0.0481017 0.0480368 0.0479714 0.0478968 0.0478161 0.047743 
0.0476573 0.0475802 0.0475142 0.0474461 0.0473688 0.0473121 0.0472535 0.0471936 0.0471519 
0.0471107 0.0470858 0.0470684 0.0470813 0.0471051 0.0471336 0.0471745 0.0472398 0.0472784 
0.0473429 0.0473972 0.0474703 0.0475458 0.047619 0.0476749 0.0476751 0.0476901 0.0477159 
0.0476486 0.047577 0.0474851 0.047484 0.0475218 0.047783 0.0482827 0.0487587 0.0492438 
0.0493735 0.04936 0.0491062 0.048911 0.0485072 0.0482886 0.0479774 0.0474526 0.0470014 
0.0465933 0.0461354 0.0455525 0.0449896 0.0443316 0.0436769 0.0427777 0.0417285 0.0407045 
0.0395195 0.0379362 0.0366151 0.0352242 0.0334984 0.0319005 0.0300498 0.0281403 0.0259124 
0.0242542 0.0223464 0.0197017 0.0166782 0.0127405 0.00812313 0.00302154 -0.000660159 -0.00440755 
-0.00541259 -0.00524805 -0.00464455 -0.00398452 -0.00301646 -0.00208004 -0.00114021 -0.000396699 0.000219887 
0.000715388 0.00115165 0.00149821 0.00179313 0.00191195 0.00163385 0.0013544 0.00112212 0.000945793 
0.000632844 3.43839e-05 0.0528869 0.0528189 0.0527445 0.0526374 0.0524989 0.0523596 0.0522158 
0.0520747 0.0519331 0.0518364 0.0517032 0.0516044 0.0515071 0.0514058 0.0513042 0.0511959 
0.051088 0.0510081 0.0509299 0.0508181 0.050735 0.0506629 0.0505608 0.0504592 0.0503513 
0.0502223 0.0501148 0.0499977 0.0498483 0.0497074 0.0495558 0.0494108 0.0493198 0.0492161 
0.0491 0.0489874 0.0489135 0.04886 0.0487952 0.0487191 0.0486281 0.0485524 0.0484975 
0.0484233 0.0483483 0.0483019 0.0482171 0.0481225 0.048061 0.0479883 0.0479023 0.0478316 
0.0477437 0.0476668 0.0475907 0.0474936 0.0473915 0.0473088 0.0472396 0.0471544 0.0470903 
0.0470427 0.0470044 0.0469729 0.0469465 0.0469501 0.046967 0.0469971 0.0470359 0.0470807 
0.0471433 0.0472073 0.0472776 0.0473237 0.047387 0.0474278 0.0474628 0.0474719 0.0474747 
0.0474169 0.0472997 0.0471446 0.0468316 0.0464815 0.0460437 0.0454798 0.044781 0.044316 
0.0437715 0.0430572 0.0421048 0.0413284 0.0399041 0.0384093 0.0367969 0.0344258 0.0317474 
0.0294575 0.0267249 0.0241766 0.0219392 0.0192825 0.0172381 0.0149975 0.0124199 0.0105617 
0.00786891 0.00574055 0.00442579 0.0034809 0.00308084 0.00298062 0.0029811 0.00345225 0.0039719 
0.00452697 0.0050613 0.00569039 0.00626782 0.00706995 0.00777083 0.00851737 0.0095463 0.0105204 
0.0118381 0.0125035 0.0520843 0.0520476 0.0519984 0.0519558 0.051908 0.0518476 0.051773 
0.0517043 0.0516295 0.0515483 0.0514723 0.0514057 0.0513209 0.0512381 0.0511622 0.0510943 
0.051025 0.0509421 0.0508585 0.0507853 0.0507123 0.0506397 0.0505666 0.0504823 0.0504025 
0.0503314 0.0502511 0.0501624 0.0500701 0.0499635 0.0498246 0.0496894 0.0495623 0.0494413 
0.049327 0.0492026 0.0490623 0.0489336 0.0488471 0.0487573 0.0486727 0.0486115 0.0485636 
0.0485215 0.0484756 0.0484276 0.0483907 0.0483527 0.0483217 0.0482956 0.0482679 0.0482374 
0.0482272 0.0482054 0.0481669 0.0481405 0.048121 0.0480997 0.0480393 0.04798 0.0479429 
0.0478856 0.0478165 0.04776 0.0477003 0.0476535 0.0475666 0.0475119 0.0474352 0.0473803 
0.0473021 0.0472323 0.0471402 0.0470449 0.0469877 0.0468919 0.0468311 0.0468091 0.0467831 
0.0468002 0.0468144 0.0468228 0.0468742 0.046912 0.0469796 0.047068 0.0471591 0.0472504 
0.0473529 0.0474498 0.0475424 0.0476681 0.0477835 0.0478923 0.048003 0.0481024 0.0481801 
0.0480686 0.0478631 0.0479659 0.0480778 0.0479635 0.0478015 0.0477869 0.0478934 0.0479851 
0.0478838 0.0477076 0.0476048 0.0474082 0.0471558 0.0468514 0.0464255 0.045974 0.0454204 
0.044569 0.044018 0.04306 0.0419604 0.040992 0.039845 0.0384966 0.0369012 0.0349003 
0.0326549 0.0302171 0.0280061 0.0258545 0.0234777 0.0210213 0.0189013 0.0168635 0.0139852 
0.0114157 0.0093625 0.0075878 0.00553822 0.0041277 0.00297877 0.00208343 0.00178257 0.00181409 
0.00199267 0.00236623 0.00298832 0.00365511 0.00409663 0.00462606 0.00531086 0.00581471 0.0066487 
0.00726815 0.00788766 0.00804584 0.0519613 0.0518856 0.0517908 0.051692 0.0516179 0.0515027 
0.0514082 0.051324 0.0512324 0.0511386 0.0510609 0.0509693 0.0508851 0.050793 0.0507219 
0.0506258 0.0505362 0.0504598 0.0503667 0.0502852 0.0501808 0.0500855 0.0499682 0.0498718 
0.049798 0.0497365 0.049665 0.0495947 0.0495241 0.04945 0.0493903 0.0493173 0.0492363 
0.0491618 0.049088 0.0490269 0.0489588 0.0488794 0.0488121 0.0487538 0.0487085 0.0486452 
0.0485953 0.048545 0.0485066 0.0484568 0.0484096 0.0483632 0.0483246 0.0482816 0.04825 
0.0482409 0.0482322 0.0482312 0.0482361 0.0482472 0.0482933 0.0483429 0.0484104 0.048413 
0.0484554 0.0485032 0.0485721 0.0485891 0.0485869 0.0486104 0.0485821 0.0485581 0.0485766 
0.048595 0.0485694 0.0485613 0.0485332 0.0484247 0.0483484 0.0481989 0.0480328 0.0476712 
0.0473895 0.046842 0.0464828 0.0460592 0.0457084 0.045422 0.0452401 0.0451694 0.0450119 
0.0448583 0.0446599 0.0443436 0.0437312 0.0424231 0.0401591 0.0376188 0.0357117 0.0330705 
0.0315438 0.029769 0.0276127 0.0255605 0.0233983 0.0212814 0.018332 0.0159936 0.0131733 
0.0105628 0.00826433 0.00649744 0.00456017 0.00339804 0.002694 0.00215232 0.0019213 0.00194337 
0.00221631 0.00256557 0.00309984 0.00394586 0.00466653 0.00541458 0.00603758 0.00676525 0.00768109 
0.00872699 0.00975319 0.0107207 0.0116442 0.0131613 0.0146012 0.0157823 0.0170016 0.0178201 
0.0179725 0.052083 0.0519627 0.0518789 0.0517867 0.0517286 0.0516588 0.0515782 0.0515001 
0.0514112 0.0513124 0.0512355 0.0511381 0.0510733 0.0509821 0.0509081 0.0508289 0.0507293 
0.0506282 0.0505263 0.0504182 0.0503251 0.0502242 0.0501202 0.0499982 0.0498624 0.0497395 
0.0496015 0.0494895 0.0493844 0.0492614 0.0491588 0.0490646 0.048976 0.0488893 0.0487965 
0.048707 0.0486199 0.0485432 0.0484663 0.0483955 0.0483164 0.0482443 0.0481714 0.04809 
0.0480288 0.0479767 0.0479032 0.0478411 0.0477834 0.0477039 0.0476455 0.0475889 0.047537 
0.0474791 0.0474445 0.0473864 0.0473454 0.0473229 0.0473005 0.0472713 0.0473048 0.0473179 
0.0473275 0.0473791 0.0474206 0.0474644 0.0475519 0.0476081 0.0476593 0.0477551 0.047814 
0.0478719 0.0478892 0.0479336 0.0479872 0.0479485 0.0479195 0.0478568 0.0478659 0.0480242 
0.0482247 0.0488717 0.0494155 0.0497808 0.0501873 0.0502188 0.0501088 0.0499047 0.0496847 
0.0493905 0.0490773 0.0488739 0.0486684 0.048422 0.0481374 0.0478808 0.047546 0.0471905 
0.0468678 0.0465242 0.0460931 0.0456304 0.0450288 0.044466 0.0436663 0.0426325 0.0414797 
0.0402979 0.03906 0.0376389 0.0362065 0.0347355 0.0333134 0.0318877 0.0304196 0.028773 
0.0267561 0.0242445 0.0214979 0.0179113 0.0140877 0.0101459 0.00705508 0.00443975 0.00292474 
0.00194962 0.00151835 0.00143831 0.00166978 0.00224066 0.00293128 0.00345021 0.0039009 0.00412402 
0.00400441 0.0035471 0.00251108 0.000767592 -0.000631745 -0.00134167 -0.00125034 -0.000755586 -0.000419781 
-0.000402074 -0.000196167 0.0514126 0.051337 0.0512441 0.0511467 0.0510551 0.0509674 0.0508694 
0.050788 0.0506842 0.0505683 0.0504682 0.0503486 0.0502545 0.0501192 0.0500161 0.0499024 
0.0497746 0.0496314 0.0495009 0.049396 0.0493136 0.0492016 0.0490883 0.0490113 0.0489428 
0.0488487 0.0487506 0.0486729 0.0485983 0.0485223 0.0484228 0.0483466 0.0482553 0.0481788 
0.0481212 0.0480287 0.0479448 0.0478715 0.0477822 0.0477041 0.04763 0.0475407 0.0474648 
0.047374 0.047307 0.0472306 0.0471608 0.0471019 0.0470563 0.0470124 0.0469898 0.0469839 
0.0469968 0.0470074 0.0470298 0.0470629 0.0470935 0.0471553 0.0471963 0.0472354 0.0472836 
0.0472938 0.0473099 0.0473133 0.0472793 0.0471902 0.047067 0.0467863 0.0465367 0.0461836 
0.0457115 0.0453121 0.0448367 0.0442953 0.0438636 0.0432999 0.0425907 0.0418517 0.0409975 
0.0400063 0.0384867 0.0365888 0.034404 0.0321456 0.0296462 0.0274131 0.0252744 0.0231536 
0.0209945 0.0183207 0.015542 0.0126586 0.00982675 0.00710062 0.00471729 0.00373909 0.00279397 
0.00241768 0.00258941 0.00297487 0.00335712 0.00391832 0.00478815 0.00527821 0.00591554 0.00668077 
0.00751863 0.00832242 0.00927521 0.0103727 0.0117909 0.0132398 0.0143726 0.0161215 0.0180251 
0.0197621 0.0210473 0.0211724 0.0205899 0.0183719 0.0140965 0.00893866 0.00334678 0.00104027 
9.74662e-05 0.0513513 0.05125 0.0511452 0.0510514 0.0509642 0.0508808 0.0507668 0.0506722 
0.0505555 0.0504276 0.0502933 0.050162 0.0500319 0.0499086 0.0497225 0.0495827 0.0494457 
0.0493322 0.0492312 0.0491394 0.0490574 0.048991 0.0489133 0.0488343 0.0487611 0.0486951 
0.0486195 0.0485643 0.0484978 0.0484172 0.0483417 0.0482967 0.0482329 0.0481588 0.0481146 
0.0480621 0.0480002 0.0479223 0.0478458 0.0477732 0.0477277 0.0476598 0.0475889 0.0475411 
0.0475142 0.0474644 0.0474313 0.0474142 0.0474259 0.0474478 0.0474741 0.0474924 0.047519 
0.0475684 0.0476306 0.0476978 0.0477615 0.0478248 0.047889 0.0479588 0.0480379 0.0481145 
0.0481606 0.0482231 0.0482619 0.0482735 0.0482256 0.0481706 0.0480635 0.0479168 0.0476728 
0.0473788 0.0469195 0.0462503 0.0455483 0.0446546 0.0436059 0.0423438 0.0406325 0.0387841 
0.0364352 0.0335673 0.0299536 0.026216 0.0223804 0.0192721 0.0173177 0.0151764 0.0137227 
0.0121481 0.0107012 0.00875126 0.00677055 0.00563255 0.00493335 0.0043089 0.0041045 0.00421179 
0.00428984 0.00493176 0.00543838 0.00597294 0.00668947 0.00718881 0.0076656 0.00850175 0.0094349 
0.0101476 0.0109154 0.0122206 0.0135476 0.0152239 0.0165598 0.0176261 0.0190193 0.0201037 
0.0196753 0.0197655 0.0180866 0.0156981 0.0103985 0.00441512 0.00164097 9.08154e-05 0.051533 
0.05142 0.0513391 0.0512551 0.0511714 0.0510687 0.0509739 0.0508607 0.0507619 0.0506677 
0.0505772 0.0504627 0.0503577 0.0502277 0.0501124 0.0499734 0.0498413 0.0497087 0.049585 
0.049467 0.0493472 0.0492426 0.0491434 0.0490489 0.0489631 0.0488771 0.0488 0.0487247 
0.0486616 0.0485939 0.0485103 0.0484339 0.0483605 0.0482904 0.0482251 0.0481734 0.0481084 
0.0480391 0.0479838 0.0479299 0.047869 0.0478095 0.0477445 0.0476798 0.0476399 0.0475871 
0.0475532 0.047512 0.0474822 0.0474879 0.0474832 0.0474911 0.0475461 0.0475781 0.0476089 
0.047679 0.0477341 0.0478304 0.0479132 0.0479988 0.0480883 0.0481983 0.0482621 0.0483659 
0.0485148 0.0485826 0.0486756 0.0487908 0.0488815 0.0489734 0.0491328 0.0494339 0.0499238 
0.0506037 0.05134 0.0521526 0.0530042 0.0531948 0.0532006 0.0528879 0.0523616 0.0518271 
0.0512451 0.0506845 0.0499443 0.0491888 0.0484502 0.0477362 0.0472549 0.04695 0.0467752 
0.0466677 0.0465222 0.046335 0.0461102 0.0458977 0.0456279 0.0453048 0.0448969 0.0444257 
0.0437767 0.0431335 0.0423215 0.0413328 0.0403969 0.0392528 0.0379761 0.0364985 0.03474 
0.0331829 0.0314045 0.0294499 0.0273065 0.0250651 0.0228372 0.0205687 0.018404 0.0169492 
0.0158836 0.0148837 0.013976 0.0131058 0.0123031 0.0113242 0.0103535 0.00932449 0.00804134 
0.00658409 0.00475955 0.00337684 0.00213338 0.000982208 0.000123748 -0.000431987 -0.000502657 -0.000493914 
-0.000401264 -0.000314519 -0.000280863 -0.00025294 -0.00024186 -0.000242793 -0.000109082 -1.49651e-06 0.0517505 
0.051646 0.0515465 0.0514525 0.0513648 0.0512743 0.0511873 0.0511166 0.0510383 0.050985 
0.0509191 0.0508787 0.0508378 0.050787 0.0507464 0.0507061 0.0506588 0.050607 0.0505517 
0.050496 0.0504443 0.0503861 0.0503346 0.0502759 0.0501925 0.0501384 0.0500623 0.0499946 
0.0498915 0.0497994 0.0496889 0.0495876 0.0494433 0.0493434 0.0492217 0.0490777 0.0490011 
0.0488861 0.0487662 0.0486639 0.0485705 0.0484848 0.0484179 0.0483634 0.0482928 0.0482141 
0.0481559 0.0481111 0.0480739 0.0480247 0.047963 0.0478984 0.047828 0.0477581 0.0476466 
0.0475365 0.0473645 0.04721 0.0470151 0.046769 0.0464332 0.0461161 0.0456016 0.045163 
0.0445492 0.0437649 0.0430273 0.0421069 0.0411425 0.040674 0.0405248 0.0403739 0.0401244 
0.0401223 0.039818 0.0389223 0.0373662 0.0353543 0.0329452 0.0299295 0.0268141 0.0237092 
0.0199714 0.0171098 0.0139802 0.0110387 0.00769169 0.00333869 -0.000303248 -0.00235575 -0.00348584 
-0.00338126 -0.00223822 -0.000997319 -0.000123285 0.00152944 0.00192936 0.0025249 0.001604 0.000810005 
0.000765267 0.000651006 0.000200339 0.0524258 0.0522993 0.052169 0.0520394 0.0519275 0.0518166 
0.0517127 0.0516166 0.0515174 0.0514218 0.0513366 0.0512727 0.0512159 0.051144 0.0510941 
0.0510467 0.0510008 0.0509613 0.0509159 0.0508798 0.0508408 0.050793 0.0507572 0.0507273 
0.0506768 0.0506381 0.0506107 0.0505714 0.0505356 0.0504967 0.0504552 0.0504081 0.0503562 
0.0502924 0.0502259 0.0501628 0.0500849 0.0500013 0.0499079 0.0498037 0.0497016 0.0496095 
0.0495188 0.0494091 0.0493473 0.0492633 0.0491698 0.0490952 0.0490183 0.0489546 0.0489018 
0.0488288 0.0487797 0.0487237 0.0486681 0.048636 0.0486086 0.0485915 0.0485681 0.048529 
0.0485041 0.0484554 0.048427 0.0483875 0.0482801 0.0482142 0.048107 0.0479424 0.0477184 
0.0474091 0.0470443 0.0465633 0.0458697 0.0449104 0.0436927 0.0419759 0.0398434 0.0382213 
0.0365054 0.0352541 0.0346655 0.0337445 0.0335513 0.0325626 0.0311245 0.0293142 0.0270658 
0.0240623 0.0206464 0.017861 0.0144866 0.010823 0.00721888 0.00342986 0.000132871 -0.00206136 
-0.00358456 -0.00433134 -0.00431296 -0.00380102 -0.00313281 -0.00253797 -0.00185668 -0.00168938 -0.000414899 
-5.34395e-05 0.0520388 0.0518726 0.0517547 0.0516541 0.051564 0.0514627 0.0513869 0.0512954 
0.0512145 0.0511363 0.0510689 0.050994 0.050929 0.0508534 0.050783 0.0507067 0.0506381 
0.050571 0.0504962 0.0504024 0.0503275 0.0502292 0.0501318 0.0500526 0.0499436 0.0498542 
0.0497676 0.0496941 0.049594 0.0494935 0.0494031 0.049302 0.0491969 0.0491107 0.0490122 
0.0489249 0.0488338 0.048712 0.0486308 0.0485387 0.0484465 0.0483616 0.048278 0.0481801 
0.0481338 0.0480504 0.0479807 0.0479055 0.0478505 0.0477858 0.0477465 0.0476891 0.047633 
0.0476025 0.0475214 0.0474549 0.0474015 0.0473569 0.0472619 0.0471975 0.0471123 0.0470157 
0.0469582 0.0468858 0.0467637 0.0466945 0.0465723 0.0464737 0.0463439 0.0462502 0.0461302 
0.0460472 0.0459348 0.0458489 0.0458483 0.0458354 0.0458662 0.04586 0.0458121 0.0456474 
0.045407 0.0450318 0.0447003 0.0446556 0.0448878 0.0448022 0.0444948 0.0444101 0.0438947 
0.0435337 0.0428475 0.0417995 0.0403313 0.0382867 0.0361727 0.0341881 0.0323748 0.0296058 
0.0268741 0.0231867 0.0201055 0.0156609 0.0105558 0.00618549 0.00228348 0.000480668 -0.000273417 
-0.0011445 -0.00167946 -0.00150517 -0.00186922 -0.00229847 -0.002202 -0.00212909 -0.00140311 -0.000882512 
-2.03607e-05 0.000117527 0.000168895 0.0517103 0.0516164 0.051508 0.0514067 0.0513076 0.0511823 
0.051069 0.0509459 0.0508421 0.0507299 0.0506172 0.0504905 0.0503609 0.0502194 0.0500459 
0.0498919 0.0497126 0.0495408 0.049371 0.049218 0.0490688 0.0489355 0.0488392 0.048763 
0.048693 0.0486344 0.0485665 0.0485088 0.0484471 0.0483943 0.0483354 0.0482611 0.0482129 
0.0481364 0.0480785 0.0480142 0.047935 0.0478774 0.0477946 0.0477268 0.0476608 0.0475806 
0.0475192 0.0474411 0.0473747 0.0473237 0.0472623 0.0472332 0.0472071 0.0471993 0.0472076 
0.0472172 0.0472345 0.0472941 0.0473503 0.0474238 0.0474948 0.0475636 0.0476557 0.0477642 
0.0478305 0.0479388 0.0480299 0.0481202 0.0482196 0.048317 0.0483666 0.0483765 0.0484128 
0.0484252 0.0483843 0.0484425 0.0485411 0.0485994 0.0487158 0.048475 0.0479193 0.0470683 
0.0455676 0.043533 0.0420572 0.039829 0.0372075 0.0342377 0.0323534 0.0301027 0.0279879 
0.0268649 0.0254136 0.0238288 0.0222339 0.0202216 0.0176133 0.0166802 0.0145487 0.0135806 
0.0120529 0.0107896 0.00955414 0.0083007 0.00727514 0.00650994 0.00545255 0.00469172 0.00392382 
0.00358461 0.00339896 0.0035792 0.00418721 0.0042567 0.0047713 0.00507088 0.00548023 0.00595309 
0.00653744 0.00717882 0.00762988 0.00786501 0.00800157 0.00789092 0.00778683 0.00760037 0.00714937 
0.00579935 0.00431252 0.00191195 0.000501533 9.45781e-05 0.052112 0.0519965 0.0518994 0.0518084 
0.0517324 0.0516419 0.0515503 0.0514708 0.0514034 0.0513228 0.0512523 0.0511902 0.0511307 
0.0510816 0.0510377 0.051002 0.0509608 0.0509324 0.0508973 0.0508609 0.0508285 0.0507923 
0.0507527 0.0507324 0.050696 0.0506633 0.0506182 0.0505727 0.0505411 0.0504944 0.0504423 
0.0503849 0.0503231 0.0502552 0.0501735 0.0500997 0.0500185 0.0499271 0.0498425 0.0497518 
0.0496642 0.0495646 0.0494709 0.0493948 0.0493495 0.0493043 0.0492226 0.0491529 0.0490914 
0.0490364 0.048971 0.0489153 0.0488974 0.0488524 0.0488482 0.0488407 0.0488143 0.0487784 
0.048755 0.0487281 0.0486929 0.0486338 0.0485302 0.0484001 0.0482029 0.0479372 0.0476542 
0.0472391 0.0466399 0.0456488 0.0443846 0.0431819 0.0414275 0.0388228 0.037144 0.0348112 
0.0332304 0.0314052 0.0301775 0.0290814 0.0278348 0.0262409 0.0242612 0.0215502 0.0191092 
0.0164719 0.0137036 0.0108841 0.00857717 0.00583901 0.00321606 0.000682727 -0.000923353 -0.00171096 
-0.00247954 -0.00263559 -0.00238826 -0.00208771 -0.00152743 -0.000235839 0.0522675 0.0521486 0.0520391 
0.051926 0.0518272 0.0517178 0.0516026 0.0514901 0.0513662 0.0512476 0.0511393 0.0510089 
0.0508945 0.0507695 0.0506445 0.0505358 0.050397 0.0502744 0.0501014 0.049946 0.0497594 
0.0495465 0.0493879 0.0492103 0.0490755 0.0489626 0.0488761 0.0487959 0.0487314 0.0486605 
0.0485851 0.0485422 0.0484867 0.0484166 0.0483682 0.0482909 0.0482265 0.0481623 0.0480952 
0.0480312 0.0479644 0.04791 0.04785 0.0477422 0.04768 0.0475992 0.0475136 0.0474329 
0.0473479 0.0472705 0.0472049 0.0471388 0.047074 0.0470351 0.0470107 0.0470008 0.0470087 
0.0470295 0.0470849 0.0471296 0.0471797 0.047237 0.0473176 0.0473926 0.0474614 0.0475428 
0.0476055 0.0476634 0.0477093 0.0477497 0.0477488 0.0477318 0.0476606 0.0475585 0.0473645 
0.0471652 0.0467622 0.0462461 0.0456715 0.0448066 0.0438794 0.0425522 0.0408326 0.0393416 